do run_ex3.txt
# ex3.v
# mult_last_2_tb
# Model Technology ModelSim - Intel FPGA Edition vlog 10.5b Compiler 2016.10 Oct  5 2016
# Start time: 12:40:41 on Jan 08,2024
# vlog -reportprogress 300 ex3.v 
# -- Compiling module mult_last2
# -- Compiling module mult_last2_tb0
# -- Compiling module mult_last2_tb1
# -- Compiling module mult_last2_tb2
# -- Compiling module mult_last_2_tb
# 
# Top level modules:
# 	mult_last_2_tb
# End time: 12:40:41 on Jan 08,2024, Elapsed time: 0:00:00
# Errors: 0, Warnings: 0
# vsim -voptargs="+acc" mult_last_2_tb 
# Start time: 12:40:42 on Jan 08,2024
# Loading work.mult_last_2_tb
# Loading work.mult_last2_tb0
# Loading work.mult_last2
# Loading work.mult_last2_tb1
# Loading work.mult_last2_tb2
# TESTBENCH 0: Valori implicite ale parametrilor
# Time	clk	ld	rst_b	in		expected_out	actual_out	Passed(1)/Failed(0)
#    0	000	00	00001	 5		           0	         0	000000000000000001
#    2	001	00	00001	10		           0	         0	000000000000000001
#    4	000	00	00001	10		           0	         0	000000000000000001
#    6	001	00	00001	 5		          50	        50	000000000000000001
#    8	000	00	00001	 5		          50	        50	000000000000000001
#   10	001	00	00001	 0		          50	        50	000000000000000001
#   12	000	00	00001	 0		          50	        50	000000000000000001
#   14	001	00	00001	 5		          25	        25	000000000000000001
#   16	000	00	00001	 5		          25	        25	000000000000000001
#   18	001	00	00001	 2		          10	        10	000000000000000001
#   20	000	00	00001	 2		          10	        10	000000000000000001
#   21	000	01	00001	10		          10	        10	000000000000000001
#   22	001	00	00001	 5		          10	        10	000000000000000001
#   24	000	00	00001	10		          10	        10	000000000000000001
#   26	001	00	00001	13		          65	        65	000000000000000001
#   28	000	00	00001	13		          65	        65	000000000000000001
#   30	001	00	00001	13		         169	       169	000000000000000001
#   32	000	00	00001	13		         169	       169	000000000000000001
#   34	001	00	00001	15		         195	       195	000000000000000001
#   36	000	00	00001	15		         195	       195	000000000000000001
#   38	001	00	00001	15		         225	       225	000000000000000001
#   40	000	00	00001	15		         225	       225	000000000000000001
#   42	001	00	00001	 0		           0	         0	000000000000000001
#   44	000	00	00001	 0		           0	         0	000000000000000001
#   46	001	00	00001	10		           0	         0	000000000000000001
#   48	000	00	00001	10		           0	         0	000000000000000001
#   50	001	00	00001	 3		           0	         0	000000000000000001
#   52	000	00	00000	10		           0	         0	000000000000000001
#   54	001	00	00001	 1		           0	         0	000000000000000001
#   56	000	00	00001	 1		           0	         0	000000000000000001
#   58	001	00	00001	10		          10	        10	000000000000000001
#   60	000	00	00001	10		          10	        10	000000000000000001
#   62	001	00	00001	 0		          10	        10	000000000000000001
#   64	000	00	00001	 0		          10	        10	000000000000000001
#   66	001	00	00001	 0		          10	        10	000000000000000001
#   68	000	00	00001	 0		          10	        10	000000000000000001
# TESTBENCH 1: Modificat valoarea de ignore
# Time	clk	ld	rst_b	in		expected_out	actual_out	Passed(1)/Failed(0)
#  100	000	00	00001	 5		           0	         0	000000000000000001
#  102	001	00	00001	10		           0	         0	000000000000000001
#  104	000	00	00001	10		           0	         0	000000000000000001
#  106	001	00	00001	 5		          50	        50	000000000000000001
#  108	000	00	00001	 5		          50	        50	000000000000000001
#  110	001	00	00001	 8		          50	        50	000000000000000001
#  112	000	00	00001	 8		          50	        50	000000000000000001
#  114	001	00	00001	 5		          25	        25	000000000000000001
#  116	000	00	00001	 5		          25	        25	000000000000000001
#  118	001	00	00001	 2		          10	        10	000000000000000001
#  120	000	00	00001	 2		          10	        10	000000000000000001
#  121	000	01	00001	10		          10	        10	000000000000000001
#  122	001	00	00001	 5		          10	        10	000000000000000001
#  124	000	00	00001	10		          10	        10	000000000000000001
#  126	001	00	00001	13		          65	        65	000000000000000001
#  128	000	00	00001	13		          65	        65	000000000000000001
#  130	001	00	00001	13		         169	       169	000000000000000001
#  132	000	00	00001	13		         169	       169	000000000000000001
#  134	001	00	00001	15		         195	       195	000000000000000001
#  136	000	00	00001	15		         195	       195	000000000000000001
#  138	001	00	00001	15		         225	       225	000000000000000001
#  140	000	00	00001	15		         225	       225	000000000000000001
#  142	001	00	00001	 0		           0	         0	000000000000000001
#  144	000	00	00001	 0		           0	         0	000000000000000001
#  146	001	00	00001	10		           0	         0	000000000000000001
#  148	000	00	00001	10		           0	         0	000000000000000001
#  150	001	00	00001	 3		           0	         0	000000000000000001
#  152	000	00	00000	10		           0	         0	000000000000000001
#  154	001	00	00001	 1		           0	         0	000000000000000001
#  156	000	00	00001	 1		           0	         0	000000000000000001
#  158	001	00	00001	10		          10	        10	000000000000000001
#  160	000	00	00001	10		          10	        10	000000000000000001
#  162	001	00	00001	 8		          10	        10	000000000000000001
#  164	000	00	00001	 8		          10	        10	000000000000000001
#  166	001	00	00001	 8		          10	        10	000000000000000001
#  168	000	00	00001	 8		          10	        10	000000000000000001
# TESTBENCH 2: Modificat numarul de biti
# Time	clk	ld	rst_b	in		expected_out	actual_out	Passed(1)/Failed(0)
#  200	000	00	00001	 5		           0	         0	000000000000000001
#  202	001	00	00001	10		           0	         0	000000000000000001
#  204	000	00	00001	10		           0	         0	000000000000000001
#  206	001	00	00001	 5		          50	        50	000000000000000001
#  208	000	00	00001	 5		          50	        50	000000000000000001
#  210	001	00	00001	 0		          50	        50	000000000000000001
#  212	000	00	00001	 0		          50	        50	000000000000000001
#  214	001	00	00001	 5		          25	        25	000000000000000001
#  216	000	00	00001	 5		          25	        25	000000000000000001
#  218	001	00	00001	 2		          10	        10	000000000000000001
#  220	000	00	00001	 2		          10	        10	000000000000000001
#  221	000	01	00001	10		          10	        10	000000000000000001
#  222	001	00	00001	 5		          10	        10	000000000000000001
#  224	000	00	00001	10		          10	        10	000000000000000001
#  226	001	00	00001	13		          65	        65	000000000000000001
#  228	000	00	00001	13		          65	        65	000000000000000001
#  230	001	00	00001	13		         169	       169	000000000000000001
#  232	000	00	00001	13		         169	       169	000000000000000001
#  234	001	00	00001	63		         819	       819	000000000000000001
#  236	000	00	00001	63		         819	       819	000000000000000001
#  238	001	00	00001	63		        3969	      3969	000000000000000001
#  240	000	00	00001	63		        3969	      3969	000000000000000001
#  242	001	00	00001	 0		           0	         0	000000000000000001
#  244	000	00	00001	 0		           0	         0	000000000000000001
#  246	001	00	00001	10		           0	         0	000000000000000001
#  248	000	00	00001	10		           0	         0	000000000000000001
#  250	001	00	00001	 3		           0	         0	000000000000000001
#  252	000	00	00000	10		           0	         0	000000000000000001
#  254	001	00	00001	 1		           0	         0	000000000000000001
#  256	000	00	00001	 1		           0	         0	000000000000000001
#  258	001	00	00001	10		          10	        10	000000000000000001
#  260	000	00	00001	10		          10	        10	000000000000000001
#  262	001	00	00001	 0		          10	        10	000000000000000001
#  264	000	00	00001	 0		          10	        10	000000000000000001
#  266	001	00	00001	 0		          10	        10	000000000000000001
#  268	000	00	00001	 0		          10	        10	000000000000000001
# All Passed / All Total:  60 /  60
# Nota: 2.50
# End time: 12:40:49 on Jan 08,2024, Elapsed time: 0:00:07
# Errors: 0, Warnings: 0
