do run_ex4.txt
# ex4.v
# spi_tx_tb
# Model Technology ModelSim - Intel FPGA Edition vlog 10.5b Compiler 2016.10 Oct  5 2016
# Start time: 11:32:10 on Jan 05,2024
# vlog -reportprogress 300 ex4.v 
# -- Compiling module spi_tx
# -- Compiling module spi_tx_tb
# 
# Top level modules:
# 	spi_tx_tb
# End time: 11:32:10 on Jan 05,2024, Elapsed time: 0:00:00
# Errors: 0, Warnings: 0
# vsim -voptargs="+acc" spi_tx_tb 
# Start time: 11:32:10 on Jan 05,2024
# Loading work.spi_tx_tb
# Loading work.spi_tx
# Time	clk	in		expected_bit	actual_bit	Passed(1)/Failed(0)	expected_stop	actual_stop	Passed(1)/Failed(0)
#    0	001	xxxxxxxx 00000000000x	000000000x	000000000000000001	0000000000001	00000000000	000000000000000000
#    1	000	00110101 000000000000	000000000x	000000000000000000	0000000000000	00000000000	000000000000000001
#    2	001	00110101 000000000000	000000000x	000000000000000000	0000000000000	00000000000	000000000000000001
#    3	000	00110101 000000000000	000000000x	000000000000000000	0000000000000	00000000000	000000000000000001
#    4	001	00110101 000000000000	0000000001	000000000000000000	0000000000000	00000000001	000000000000000000
#    5	000	00110101 000000000001	0000000001	000000000000000001	0000000000000	00000000001	000000000000000000
#    6	001	00110101 000000000001	0000000001	000000000000000001	0000000000000	00000000000	000000000000000001
#    7	000	00110101 000000000001	0000000001	000000000000000001	0000000000000	00000000000	000000000000000001
#    8	001	00110101 000000000001	0000000000	000000000000000000	0000000000000	00000000001	000000000000000000
#    9	000	00110101 000000000000	0000000000	000000000000000001	0000000000000	00000000001	000000000000000000
#   10	001	00110101 000000000000	0000000000	000000000000000001	0000000000000	00000000000	000000000000000001
#   11	000	00110101 000000000001	0000000000	000000000000000000	0000000000000	00000000000	000000000000000001
#   12	001	00110101 000000000001	0000000000	000000000000000000	0000000000000	00000000001	000000000000000000
#   13	000	00110101 000000000000	0000000000	000000000000000001	0000000000000	00000000001	000000000000000000
#   14	001	00110101 000000000000	0000000000	000000000000000001	0000000000000	00000000000	000000000000000001
#   15	000	00110101 000000000001	0000000000	000000000000000000	0000000000001	00000000000	000000000000000000
#   16	001	00110101 000000000001	0000000000	000000000000000000	0000000000001	00000000001	000000000000000001
#   17	000	00110101 000000000001	0000000000	000000000000000000	0000000000001	00000000001	000000000000000001
#   18	001	00110101 000000000001	0000000000	000000000000000000	0000000000001	00000000000	000000000000000000
#   19	000	00110101 000000000001	0000000000	000000000000000000	0000000000001	00000000000	000000000000000000
#   20	001	00110101 000000000001	0000000000	000000000000000000	0000000000001	00000000001	000000000000000001
#   21	000	00110101 000000000001	0000000000	000000000000000000	0000000000001	00000000001	000000000000000001
#   22	001	00110101 000000000001	0000000000	000000000000000000	0000000000001	00000000000	000000000000000000
#   23	000	11001100 000000000001	0000000000	000000000000000000	0000000000000	00000000000	000000000000000001
#   24	001	11001100 000000000001	0000000001	000000000000000001	0000000000000	00000000000	000000000000000001
#   25	000	11001100 000000000001	0000000001	000000000000000001	0000000000000	00000000000	000000000000000001
#   26	001	11001100 000000000001	0000000001	000000000000000001	0000000000000	00000000001	000000000000000000
#   27	000	11001100 000000000000	0000000001	000000000000000000	0000000000000	00000000001	000000000000000000
#   28	001	11001100 000000000000	0000000001	000000000000000000	0000000000000	00000000000	000000000000000001
#   29	000	11001100 000000000000	0000000001	000000000000000000	0000000000000	00000000000	000000000000000001
#   30	001	11001100 000000000000	0000000001	000000000000000000	0000000000000	00000000001	000000000000000000
#   31	000	11001100 000000000001	0000000001	000000000000000001	0000000000000	00000000001	000000000000000000
#   32	001	11001100 000000000001	0000000001	000000000000000001	0000000000000	00000000000	000000000000000001
#   33	000	11001100 000000000001	0000000001	000000000000000001	0000000000000	00000000000	000000000000000001
#   34	001	11001100 000000000001	0000000001	000000000000000001	0000000000000	00000000001	000000000000000000
#   35	000	11001100 000000000000	0000000001	000000000000000000	0000000000000	00000000001	000000000000000000
#   36	001	11001100 000000000000	0000000001	000000000000000000	0000000000000	00000000000	000000000000000001
#   37	000	11001100 000000000000	0000000001	000000000000000000	0000000000001	00000000000	000000000000000000
#   38	001	11001100 000000000000	0000000001	000000000000000000	0000000000001	00000000001	000000000000000001
#   39	000	00110101 000000000000	0000000001	000000000000000000	0000000000000	00000000001	000000000000000000
#   40	001	00110101 000000000000	0000000001	000000000000000000	0000000000000	00000000000	000000000000000001
#   41	000	00110101 000000000000	0000000001	000000000000000000	0000000000000	00000000000	000000000000000001
#   42	001	00110101 000000000000	0000000000	000000000000000001	0000000000000	00000000000	000000000000000001
#   43	000	00110101 000000000001	0000000000	000000000000000000	0000000000000	00000000000	000000000000000001
#   44	001	00110101 000000000001	0000000000	000000000000000000	0000000000000	00000000001	000000000000000000
#   45	000	00101001 000000000000	0000000000	000000000000000001	0000000000000	00000000001	000000000000000000
#   46	001	00101001 000000000000	0000000000	000000000000000001	0000000000000	00000000000	000000000000000001
#   47	000	00101001 000000000000	0000000000	000000000000000001	0000000000000	00000000000	000000000000000001
#   48	001	00101001 000000000000	0000000000	000000000000000001	0000000000000	00000000000	000000000000000001
#   49	000	00101001 000000000001	0000000000	000000000000000000	0000000000000	00000000000	000000000000000001
#   50	001	00101001 000000000001	0000000000	000000000000000000	0000000000000	00000000001	000000000000000000
#   51	000	00101001 000000000000	0000000000	000000000000000001	0000000000000	00000000001	000000000000000000
#   52	001	00101001 000000000000	0000000000	000000000000000001	0000000000000	00000000000	000000000000000001
#   53	000	00101001 000000000001	0000000000	000000000000000000	0000000000000	00000000000	000000000000000001
#   54	001	00101001 000000000001	0000000000	000000000000000000	0000000000000	00000000001	000000000000000000
#   55	000	00101001 000000000000	0000000000	000000000000000001	0000000000000	00000000001	000000000000000000
#   56	001	00101001 000000000000	0000000000	000000000000000001	0000000000000	00000000000	000000000000000001
#   57	000	00101001 000000000000	0000000000	000000000000000001	0000000000000	00000000000	000000000000000001
#   58	001	00101001 000000000000	0000000000	000000000000000001	0000000000000	00000000001	000000000000000000
#   59	000	00101001 000000000001	0000000000	000000000000000000	0000000000001	00000000001	000000000000000001
#   60	001	00101001 000000000001	0000000000	000000000000000000	0000000000001	00000000000	000000000000000000
#   61	000	00101001 000000000001	0000000000	000000000000000000	0000000000001	00000000000	000000000000000000
#   62	001	00101001 000000000001	0000000000	000000000000000000	0000000000001	00000000001	000000000000000001
#   63	000	00101001 000000000001	0000000000	000000000000000000	0000000000001	00000000001	000000000000000001
#   64	001	00101001 000000000001	0000000000	000000000000000000	0000000000001	00000000000	000000000000000000
# Passed / Total: 32 / 66
# Nota: 1.200
# End time: 11:32:17 on Jan 05,2024, Elapsed time: 0:00:07
# Errors: 0, Warnings: 0
do run_ex4.txt
# ex4.v
# spi_tx_tb
# Model Technology ModelSim - Intel FPGA Edition vlog 10.5b Compiler 2016.10 Oct  5 2016
# Start time: 11:33:25 on Jan 05,2024
# vlog -reportprogress 300 ex4.v 
# -- Compiling module spi_tx
# -- Compiling module spi_tx_tb
# 
# Top level modules:
# 	spi_tx_tb
# End time: 11:33:25 on Jan 05,2024, Elapsed time: 0:00:00
# Errors: 0, Warnings: 0
# vsim -voptargs="+acc" spi_tx_tb 
# Start time: 11:33:25 on Jan 05,2024
# Loading work.spi_tx_tb
# Loading work.spi_tx
# Time	clk	in		expected_bit	actual_bit	Passed(1)/Failed(0)	expected_stop	actual_stop	Passed(1)/Failed(0)
#    0	001	xxxxxxxx 00000000000x	000000000x	000000000000000001	0000000000001	00000000001	000000000000000001
#    1	000	00110101 000000000000	000000000x	000000000000000000	0000000000000	00000000000	000000000000000001
#    2	001	00110101 000000000000	0000000000	000000000000000001	0000000000000	00000000000	000000000000000001
#    3	000	00110101 000000000000	0000000000	000000000000000001	0000000000000	00000000000	000000000000000001
#    4	001	00110101 000000000000	0000000000	000000000000000001	0000000000000	00000000000	000000000000000001
#    5	000	00110101 000000000001	0000000000	000000000000000000	0000000000000	00000000000	000000000000000001
#    6	001	00110101 000000000001	0000000001	000000000000000001	0000000000000	00000000000	000000000000000001
#    7	000	00110101 000000000001	0000000001	000000000000000001	0000000000000	00000000000	000000000000000001
#    8	001	00110101 000000000001	0000000001	000000000000000001	0000000000000	00000000000	000000000000000001
#    9	000	00110101 000000000000	0000000001	000000000000000000	0000000000000	00000000000	000000000000000001
#   10	001	00110101 000000000000	0000000000	000000000000000001	0000000000000	00000000000	000000000000000001
#   11	000	00110101 000000000001	0000000000	000000000000000000	0000000000000	00000000000	000000000000000001
#   12	001	00110101 000000000001	0000000001	000000000000000001	0000000000000	00000000000	000000000000000001
#   13	000	00110101 000000000000	0000000001	000000000000000000	0000000000000	00000000000	000000000000000001
#   14	001	00110101 000000000000	0000000000	000000000000000001	0000000000000	00000000000	000000000000000001
#   15	000	00110101 000000000001	0000000000	000000000000000000	0000000000001	00000000000	000000000000000000
#   16	001	00110101 000000000001	0000000000	000000000000000000	0000000000001	00000000001	000000000000000001
#   17	000	00110101 000000000001	0000000000	000000000000000000	0000000000001	00000000001	000000000000000001
#   18	001	00110101 000000000001	0000000000	000000000000000000	0000000000001	00000000001	000000000000000001
#   19	000	00110101 000000000001	0000000000	000000000000000000	0000000000001	00000000001	000000000000000001
#   20	001	00110101 000000000001	0000000000	000000000000000000	0000000000001	00000000001	000000000000000001
#   21	000	00110101 000000000001	0000000000	000000000000000000	0000000000001	00000000001	000000000000000001
#   22	001	00110101 000000000001	0000000000	000000000000000000	0000000000001	00000000001	000000000000000001
#   23	000	11001100 000000000001	0000000000	000000000000000000	0000000000000	00000000000	000000000000000001
#   24	001	11001100 000000000001	0000000001	000000000000000001	0000000000000	00000000000	000000000000000001
#   25	000	11001100 000000000001	0000000001	000000000000000001	0000000000000	00000000000	000000000000000001
#   26	001	11001100 000000000001	0000000001	000000000000000001	0000000000000	00000000000	000000000000000001
#   27	000	11001100 000000000000	0000000001	000000000000000000	0000000000000	00000000000	000000000000000001
#   28	001	11001100 000000000000	0000000000	000000000000000001	0000000000000	00000000000	000000000000000001
#   29	000	11001100 000000000000	0000000000	000000000000000001	0000000000000	00000000000	000000000000000001
#   30	001	11001100 000000000000	0000000000	000000000000000001	0000000000000	00000000000	000000000000000001
#   31	000	11001100 000000000001	0000000000	000000000000000000	0000000000000	00000000000	000000000000000001
#   32	001	11001100 000000000001	0000000001	000000000000000001	0000000000000	00000000000	000000000000000001
#   33	000	11001100 000000000001	0000000001	000000000000000001	0000000000000	00000000000	000000000000000001
#   34	001	11001100 000000000001	0000000001	000000000000000001	0000000000000	00000000000	000000000000000001
#   35	000	11001100 000000000000	0000000001	000000000000000000	0000000000000	00000000000	000000000000000001
#   36	001	11001100 000000000000	0000000000	000000000000000001	0000000000000	00000000000	000000000000000001
#   37	000	11001100 000000000000	0000000000	000000000000000001	0000000000001	00000000000	000000000000000000
#   38	001	11001100 000000000000	0000000000	000000000000000001	0000000000001	00000000001	000000000000000001
#   39	000	00110101 000000000000	0000000000	000000000000000001	0000000000000	00000000000	000000000000000001
#   40	001	00110101 000000000000	0000000000	000000000000000001	0000000000000	00000000000	000000000000000001
#   41	000	00110101 000000000000	0000000000	000000000000000001	0000000000000	00000000000	000000000000000001
#   42	001	00110101 000000000000	0000000000	000000000000000001	0000000000000	00000000000	000000000000000001
#   43	000	00110101 000000000001	0000000000	000000000000000000	0000000000000	00000000000	000000000000000001
#   44	001	00110101 000000000001	0000000001	000000000000000001	0000000000000	00000000000	000000000000000001
#   45	000	00101001 000000000000	0000000001	000000000000000000	0000000000000	00000000000	000000000000000001
#   46	001	00101001 000000000000	0000000000	000000000000000001	0000000000000	00000000000	000000000000000001
#   47	000	00101001 000000000000	0000000000	000000000000000001	0000000000000	00000000000	000000000000000001
#   48	001	00101001 000000000000	0000000000	000000000000000001	0000000000000	00000000000	000000000000000001
#   49	000	00101001 000000000001	0000000000	000000000000000000	0000000000000	00000000000	000000000000000001
#   50	001	00101001 000000000001	0000000001	000000000000000001	0000000000000	00000000000	000000000000000001
#   51	000	00101001 000000000000	0000000001	000000000000000000	0000000000000	00000000000	000000000000000001
#   52	001	00101001 000000000000	0000000000	000000000000000001	0000000000000	00000000000	000000000000000001
#   53	000	00101001 000000000001	0000000000	000000000000000000	0000000000000	00000000000	000000000000000001
#   54	001	00101001 000000000001	0000000001	000000000000000001	0000000000000	00000000000	000000000000000001
#   55	000	00101001 000000000000	0000000001	000000000000000000	0000000000000	00000000000	000000000000000001
#   56	001	00101001 000000000000	0000000000	000000000000000001	0000000000000	00000000000	000000000000000001
#   57	000	00101001 000000000000	0000000000	000000000000000001	0000000000000	00000000000	000000000000000001
#   58	001	00101001 000000000000	0000000000	000000000000000001	0000000000000	00000000000	000000000000000001
#   59	000	00101001 000000000001	0000000000	000000000000000000	0000000000001	00000000000	000000000000000000
#   60	001	00101001 000000000001	0000000000	000000000000000000	0000000000001	00000000001	000000000000000001
#   61	000	00101001 000000000001	0000000000	000000000000000000	0000000000001	00000000001	000000000000000001
#   62	001	00101001 000000000001	0000000000	000000000000000000	0000000000001	00000000001	000000000000000001
#   63	000	00101001 000000000001	0000000000	000000000000000000	0000000000001	00000000001	000000000000000001
#   64	001	00101001 000000000001	0000000000	000000000000000000	0000000000001	00000000001	000000000000000001
# Passed / Total: 59 / 66
# Nota: 2.225
# End time: 11:33:28 on Jan 05,2024, Elapsed time: 0:00:03
# Errors: 0, Warnings: 0
do run_ex4.txt
# ex4.v
# spi_tx_tb
# Model Technology ModelSim - Intel FPGA Edition vlog 10.5b Compiler 2016.10 Oct  5 2016
# Start time: 11:35:13 on Jan 05,2024
# vlog -reportprogress 300 ex4.v 
# -- Compiling module spi_tx
# -- Compiling module spi_tx_tb
# 
# Top level modules:
# 	spi_tx_tb
# End time: 11:35:13 on Jan 05,2024, Elapsed time: 0:00:00
# Errors: 0, Warnings: 0
# vsim -voptargs="+acc" spi_tx_tb 
# Start time: 11:35:13 on Jan 05,2024
# Loading work.spi_tx_tb
# Loading work.spi_tx
# Time	clk	in		expected_bit	actual_bit	Passed(1)/Failed(0)	expected_stop	actual_stop	Passed(1)/Failed(0)
#    0	001	xxxxxxxx 00000000000x	000000000x	000000000000000001	0000000000001	00000000001	000000000000000001
#    1	000	00110101 000000000000	000000000x	000000000000000000	0000000000000	00000000000	000000000000000001
#    2	001	00110101 000000000000	0000000000	000000000000000001	0000000000000	00000000000	000000000000000001
#    3	000	00110101 000000000000	0000000000	000000000000000001	0000000000000	00000000000	000000000000000001
#    4	001	00110101 000000000000	0000000000	000000000000000001	0000000000000	00000000000	000000000000000001
#    5	000	00110101 000000000001	0000000000	000000000000000000	0000000000000	00000000000	000000000000000001
#    6	001	00110101 000000000001	0000000001	000000000000000001	0000000000000	00000000000	000000000000000001
#    7	000	00110101 000000000001	0000000001	000000000000000001	0000000000000	00000000000	000000000000000001
#    8	001	00110101 000000000001	0000000001	000000000000000001	0000000000000	00000000000	000000000000000001
#    9	000	00110101 000000000000	0000000001	000000000000000000	0000000000000	00000000000	000000000000000001
#   10	001	00110101 000000000000	0000000000	000000000000000001	0000000000000	00000000000	000000000000000001
#   11	000	00110101 000000000001	0000000000	000000000000000000	0000000000000	00000000000	000000000000000001
#   12	001	00110101 000000000001	0000000001	000000000000000001	0000000000000	00000000000	000000000000000001
#   13	000	00110101 000000000000	0000000001	000000000000000000	0000000000000	00000000000	000000000000000001
#   14	001	00110101 000000000000	0000000000	000000000000000001	0000000000000	00000000000	000000000000000001
#   15	000	00110101 000000000001	0000000000	000000000000000000	0000000000001	00000000000	000000000000000000
#   16	001	00110101 000000000001	0000000000	000000000000000000	0000000000001	00000000001	000000000000000001
#   17	000	00110101 000000000001	0000000000	000000000000000000	0000000000001	00000000001	000000000000000001
#   18	001	00110101 000000000001	0000000000	000000000000000000	0000000000001	00000000001	000000000000000001
#   19	000	00110101 000000000001	0000000000	000000000000000000	0000000000001	00000000001	000000000000000001
#   20	001	00110101 000000000001	0000000000	000000000000000000	0000000000001	00000000001	000000000000000001
#   21	000	00110101 000000000001	0000000000	000000000000000000	0000000000001	00000000001	000000000000000001
#   22	001	00110101 000000000001	0000000000	000000000000000000	0000000000001	00000000001	000000000000000001
#   23	000	11001100 000000000001	0000000000	000000000000000000	0000000000000	00000000000	000000000000000001
#   24	001	11001100 000000000001	0000000001	000000000000000001	0000000000000	00000000000	000000000000000001
#   25	000	11001100 000000000001	0000000001	000000000000000001	0000000000000	00000000000	000000000000000001
#   26	001	11001100 000000000001	0000000001	000000000000000001	0000000000000	00000000000	000000000000000001
#   27	000	11001100 000000000000	0000000001	000000000000000000	0000000000000	00000000000	000000000000000001
#   28	001	11001100 000000000000	0000000000	000000000000000001	0000000000000	00000000000	000000000000000001
#   29	000	11001100 000000000000	0000000000	000000000000000001	0000000000000	00000000000	000000000000000001
#   30	001	11001100 000000000000	0000000000	000000000000000001	0000000000000	00000000000	000000000000000001
#   31	000	11001100 000000000001	0000000000	000000000000000000	0000000000000	00000000000	000000000000000001
#   32	001	11001100 000000000001	0000000001	000000000000000001	0000000000000	00000000000	000000000000000001
#   33	000	11001100 000000000001	0000000001	000000000000000001	0000000000000	00000000000	000000000000000001
#   34	001	11001100 000000000001	0000000001	000000000000000001	0000000000000	00000000000	000000000000000001
#   35	000	11001100 000000000000	0000000001	000000000000000000	0000000000000	00000000000	000000000000000001
#   36	001	11001100 000000000000	0000000000	000000000000000001	0000000000000	00000000000	000000000000000001
#   37	000	11001100 000000000000	0000000000	000000000000000001	0000000000001	00000000000	000000000000000000
#   38	001	11001100 000000000000	0000000000	000000000000000001	0000000000001	00000000001	000000000000000001
#   39	000	00110101 000000000000	0000000000	000000000000000001	0000000000000	00000000000	000000000000000001
#   40	001	00110101 000000000000	0000000000	000000000000000001	0000000000000	00000000000	000000000000000001
#   41	000	00110101 000000000000	0000000000	000000000000000001	0000000000000	00000000000	000000000000000001
#   42	001	00110101 000000000000	0000000000	000000000000000001	0000000000000	00000000000	000000000000000001
#   43	000	00110101 000000000001	0000000000	000000000000000000	0000000000000	00000000000	000000000000000001
#   44	001	00110101 000000000001	0000000001	000000000000000001	0000000000000	00000000000	000000000000000001
#   45	000	00101001 000000000000	0000000001	000000000000000000	0000000000000	00000000000	000000000000000001
#   46	001	00101001 000000000000	0000000000	000000000000000001	0000000000000	00000000000	000000000000000001
#   47	000	00101001 000000000000	0000000000	000000000000000001	0000000000000	00000000000	000000000000000001
#   48	001	00101001 000000000000	0000000000	000000000000000001	0000000000000	00000000000	000000000000000001
#   49	000	00101001 000000000001	0000000000	000000000000000000	0000000000000	00000000000	000000000000000001
#   50	001	00101001 000000000001	0000000001	000000000000000001	0000000000000	00000000000	000000000000000001
#   51	000	00101001 000000000000	0000000001	000000000000000000	0000000000000	00000000000	000000000000000001
#   52	001	00101001 000000000000	0000000000	000000000000000001	0000000000000	00000000000	000000000000000001
#   53	000	00101001 000000000001	0000000000	000000000000000000	0000000000000	00000000000	000000000000000001
#   54	001	00101001 000000000001	0000000001	000000000000000001	0000000000000	00000000000	000000000000000001
#   55	000	00101001 000000000000	0000000001	000000000000000000	0000000000000	00000000000	000000000000000001
#   56	001	00101001 000000000000	0000000000	000000000000000001	0000000000000	00000000000	000000000000000001
#   57	000	00101001 000000000000	0000000000	000000000000000001	0000000000000	00000000000	000000000000000001
#   58	001	00101001 000000000000	0000000000	000000000000000001	0000000000000	00000000000	000000000000000001
#   59	000	00101001 000000000001	0000000000	000000000000000000	0000000000001	00000000000	000000000000000000
#   60	001	00101001 000000000001	0000000000	000000000000000000	0000000000001	00000000001	000000000000000001
#   61	000	00101001 000000000001	0000000000	000000000000000000	0000000000001	00000000001	000000000000000001
#   62	001	00101001 000000000001	0000000000	000000000000000000	0000000000001	00000000001	000000000000000001
#   63	000	00101001 000000000001	0000000000	000000000000000000	0000000000001	00000000001	000000000000000001
#   64	001	00101001 000000000001	0000000000	000000000000000000	0000000000001	00000000001	000000000000000001
# Passed / Total: 59 / 66
# Nota: 2.225
# End time: 11:35:17 on Jan 05,2024, Elapsed time: 0:00:04
# Errors: 0, Warnings: 0
do run_ex4.txt
# ex4.v
# spi_tx_tb
# Model Technology ModelSim - Intel FPGA Edition vlog 10.5b Compiler 2016.10 Oct  5 2016
# Start time: 11:40:04 on Jan 05,2024
# vlog -reportprogress 300 ex4.v 
# -- Compiling module spi_tx
# -- Compiling module spi_tx_tb
# 
# Top level modules:
# 	spi_tx_tb
# End time: 11:40:04 on Jan 05,2024, Elapsed time: 0:00:00
# Errors: 0, Warnings: 0
# vsim -voptargs="+acc" spi_tx_tb 
# Start time: 11:40:04 on Jan 05,2024
# Loading work.spi_tx_tb
# Loading work.spi_tx
# Time	clk	in		expected_bit	actual_bit	Passed(1)/Failed(0)	expected_stop	actual_stop	Passed(1)/Failed(0)
#    0	001	xxxxxxxx 00000000000x	000000000x	000000000000000001	0000000000001	00000000001	000000000000000001
#    1	000	00110101 000000000000	0000000000	000000000000000001	0000000000000	00000000000	000000000000000001
#    2	001	00110101 000000000000	0000000000	000000000000000001	0000000000000	00000000000	000000000000000001
#    3	000	00110101 000000000000	0000000000	000000000000000001	0000000000000	00000000000	000000000000000001
#    4	001	00110101 000000000000	0000000001	000000000000000000	0000000000000	00000000000	000000000000000001
#    5	000	00110101 000000000001	0000000001	000000000000000001	0000000000000	00000000000	000000000000000001
#    6	001	00110101 000000000001	0000000001	000000000000000001	0000000000000	00000000000	000000000000000001
#    7	000	00110101 000000000001	0000000001	000000000000000001	0000000000000	00000000000	000000000000000001
#    8	001	00110101 000000000001	0000000000	000000000000000000	0000000000000	00000000000	000000000000000001
#    9	000	00110101 000000000000	0000000000	000000000000000001	0000000000000	00000000000	000000000000000001
#   10	001	00110101 000000000000	0000000001	000000000000000000	0000000000000	00000000000	000000000000000001
#   11	000	00110101 000000000001	0000000001	000000000000000001	0000000000000	00000000000	000000000000000001
#   12	001	00110101 000000000001	0000000000	000000000000000000	0000000000000	00000000000	000000000000000001
#   13	000	00110101 000000000000	0000000000	000000000000000001	0000000000000	00000000000	000000000000000001
#   14	001	00110101 000000000000	0000000000	000000000000000001	0000000000000	00000000001	000000000000000000
#   15	000	00110101 000000000001	0000000000	000000000000000000	0000000000001	00000000001	000000000000000001
#   16	001	00110101 000000000001	0000000000	000000000000000000	0000000000001	00000000001	000000000000000001
#   17	000	00110101 000000000001	0000000000	000000000000000000	0000000000001	00000000001	000000000000000001
#   18	001	00110101 000000000001	0000000000	000000000000000000	0000000000001	00000000001	000000000000000001
#   19	000	00110101 000000000001	0000000000	000000000000000000	0000000000001	00000000001	000000000000000001
#   20	001	00110101 000000000001	0000000000	000000000000000000	0000000000001	00000000001	000000000000000001
#   21	000	00110101 000000000001	0000000000	000000000000000000	0000000000001	00000000001	000000000000000001
#   22	001	00110101 000000000001	0000000000	000000000000000000	0000000000001	00000000001	000000000000000001
#   23	000	11001100 000000000001	0000000001	000000000000000001	0000000000000	00000000000	000000000000000001
#   24	001	11001100 000000000001	0000000001	000000000000000001	0000000000000	00000000000	000000000000000001
#   25	000	11001100 000000000001	0000000001	000000000000000001	0000000000000	00000000000	000000000000000001
#   26	001	11001100 000000000001	0000000000	000000000000000000	0000000000000	00000000000	000000000000000001
#   27	000	11001100 000000000000	0000000000	000000000000000001	0000000000000	00000000000	000000000000000001
#   28	001	11001100 000000000000	0000000000	000000000000000001	0000000000000	00000000000	000000000000000001
#   29	000	11001100 000000000000	0000000000	000000000000000001	0000000000000	00000000000	000000000000000001
#   30	001	11001100 000000000000	0000000001	000000000000000000	0000000000000	00000000000	000000000000000001
#   31	000	11001100 000000000001	0000000001	000000000000000001	0000000000000	00000000000	000000000000000001
#   32	001	11001100 000000000001	0000000001	000000000000000001	0000000000000	00000000000	000000000000000001
#   33	000	11001100 000000000001	0000000001	000000000000000001	0000000000000	00000000000	000000000000000001
#   34	001	11001100 000000000001	0000000000	000000000000000000	0000000000000	00000000000	000000000000000001
#   35	000	11001100 000000000000	0000000000	000000000000000001	0000000000000	00000000000	000000000000000001
#   36	001	11001100 000000000000	0000000000	000000000000000001	0000000000000	00000000001	000000000000000000
#   37	000	11001100 000000000000	0000000000	000000000000000001	0000000000001	00000000001	000000000000000001
#   38	001	11001100 000000000000	0000000000	000000000000000001	0000000000001	00000000001	000000000000000001
#   39	000	00110101 000000000000	0000000000	000000000000000001	0000000000000	00000000000	000000000000000001
#   40	001	00110101 000000000000	0000000000	000000000000000001	0000000000000	00000000000	000000000000000001
#   41	000	00110101 000000000000	0000000000	000000000000000001	0000000000000	00000000000	000000000000000001
#   42	001	00110101 000000000000	0000000001	000000000000000000	0000000000000	00000000000	000000000000000001
#   43	000	00110101 000000000001	0000000001	000000000000000001	0000000000000	00000000000	000000000000000001
#   44	001	00110101 000000000001	0000000001	000000000000000001	0000000000000	00000000000	000000000000000001
#   45	000	00101001 000000000000	0000000000	000000000000000001	0000000000000	00000000000	000000000000000001
#   46	001	00101001 000000000000	0000000000	000000000000000001	0000000000000	00000000000	000000000000000001
#   47	000	00101001 000000000000	0000000000	000000000000000001	0000000000000	00000000000	000000000000000001
#   48	001	00101001 000000000000	0000000001	000000000000000000	0000000000000	00000000000	000000000000000001
#   49	000	00101001 000000000001	0000000001	000000000000000001	0000000000000	00000000000	000000000000000001
#   50	001	00101001 000000000001	0000000000	000000000000000000	0000000000000	00000000000	000000000000000001
#   51	000	00101001 000000000000	0000000000	000000000000000001	0000000000000	00000000000	000000000000000001
#   52	001	00101001 000000000000	0000000001	000000000000000000	0000000000000	00000000000	000000000000000001
#   53	000	00101001 000000000001	0000000001	000000000000000001	0000000000000	00000000000	000000000000000001
#   54	001	00101001 000000000001	0000000000	000000000000000000	0000000000000	00000000000	000000000000000001
#   55	000	00101001 000000000000	0000000000	000000000000000001	0000000000000	00000000000	000000000000000001
#   56	001	00101001 000000000000	0000000000	000000000000000001	0000000000000	00000000000	000000000000000001